/*--------------------------------*- C++ -*----------------------------------*\
  =========                 |
  \\      /  F ield         | OpenFOAM: The Open Source CFD Toolbox
   \\    /   O peration     | Website:  https://openfoam.org
    \\  /    A nd           | Version:  12
     \\/     M anipulation  |
\*---------------------------------------------------------------------------*/

FoamFile
{
    version     2.0;
    format      ascii;
    class       volScalarField;
    location    "0";
    object      SolarRadiation;
}

// * * * * * * * * * * * * * * * * * * * * * * * * * * * * * * * * * * * * * //

dimensions      [1 -3 -2 0 0 0 0];  // Dimensions for energy per unit area (W/m²)

internalField   uniform 0;          // Default value for internal field

boundaryField
{
    patch0
    {
        type            fixedValue ;
        value           uniform 1000 ;
    }
}

// ************************************************************************* //
